MODEL 1
REMARK VINA RESULT:    -5.371      0.000      0.000
REMARK INTER + INTRA:          -6.113
REMARK INTER:                  -5.999
REMARK INTRA:                  -0.114
REMARK UNBOUND:                -0.114
REMARK SMILES O=C/C=C/c1ccccc1
REMARK SMILES IDX 4 1 3 2 2 3 1 4 5 5 6 6 10 7 7 8 9 9 8 10
REMARK H PARENT
ROOT
ATOM      1  C   UNL     1      13.883  85.613 155.315  1.00  0.00     0.011 C 
ATOM      2  C   UNL     1      14.893  86.495 155.149  1.00  0.00     0.044 C 
ENDROOT
BRANCH   2   3
ATOM      3  C   UNL     1      15.442  87.196 156.328  1.00  0.00     0.252 C 
ATOM      4  O   UNL     1      15.853  86.589 157.309  1.00  0.00    -0.299 OA
ENDBRANCH   2   3
BRANCH   1   5
ATOM      5  C   UNL     1      13.253  84.845 154.253  1.00  0.00    -0.026 A 
ATOM      6  C   UNL     1      12.756  85.495 153.123  1.00  0.00     0.008 A 
ATOM      7  C   UNL     1      13.145  83.459 154.363  1.00  0.00     0.008 A 
ATOM      8  C   UNL     1      12.152  84.759 152.104  1.00  0.00     0.001 A 
ATOM      9  C   UNL     1      12.541  82.723 153.344  1.00  0.00     0.001 A 
ATOM     10  C   UNL     1      12.045  83.372 152.214  1.00  0.00     0.000 A 
ENDBRANCH   1   5
TORSDOF 2
ENDMDL
MODEL 2
REMARK VINA RESULT:    -5.259      2.883      5.183
REMARK INTER + INTRA:          -5.988
REMARK INTER:                  -5.868
REMARK INTRA:                  -0.121
REMARK UNBOUND:                -0.114
REMARK SMILES O=C/C=C/c1ccccc1
REMARK SMILES IDX 4 1 3 2 2 3 1 4 5 5 6 6 10 7 7 8 9 9 8 10
REMARK H PARENT
ROOT
ATOM      1  C   UNL     1      12.871  83.554 155.114  1.00  0.00     0.011 C 
ATOM      2  C   UNL     1      12.938  83.381 153.777  1.00  0.00     0.044 C 
ENDROOT
BRANCH   2   3
ATOM      3  C   UNL     1      11.980  82.471 153.116  1.00  0.00     0.252 C 
ATOM      4  O   UNL     1      12.190  82.009 152.001  1.00  0.00    -0.299 OA
ENDBRANCH   2   3
BRANCH   1   5
ATOM      5  C   UNL     1      13.739  84.421 155.896  1.00  0.00    -0.026 A 
ATOM      6  C   UNL     1      13.535  84.559 157.268  1.00  0.00     0.008 A 
ATOM      7  C   UNL     1      14.777  85.114 155.272  1.00  0.00     0.008 A 
ATOM      8  C   UNL     1      14.367  85.391 158.018  1.00  0.00     0.001 A 
ATOM      9  C   UNL     1      15.610  85.945 156.021  1.00  0.00     0.001 A 
ATOM     10  C   UNL     1      15.406  86.083 157.394  1.00  0.00     0.000 A 
ENDBRANCH   1   5
TORSDOF 2
ENDMDL
MODEL 3
REMARK VINA RESULT:    -4.877      3.094      4.953
REMARK INTER + INTRA:          -5.562
REMARK INTER:                  -5.452
REMARK INTRA:                  -0.110
REMARK UNBOUND:                -0.114
REMARK SMILES O=C/C=C/c1ccccc1
REMARK SMILES IDX 4 1 3 2 2 3 1 4 5 5 6 6 10 7 7 8 9 9 8 10
REMARK H PARENT
ROOT
ATOM      1  C   UNL     1      11.861  83.902 153.115  1.00  0.00     0.011 C 
ATOM      2  C   UNL     1      12.056  82.935 152.193  1.00  0.00     0.044 C 
ENDROOT
BRANCH   2   3
ATOM      3  C   UNL     1      10.889  82.355 151.497  1.00  0.00     0.252 C 
ATOM      4  O   UNL     1      10.159  81.531 152.035  1.00  0.00    -0.299 OA
ENDBRANCH   2   3
BRANCH   1   5
ATOM      5  C   UNL     1      12.911  84.569 153.870  1.00  0.00    -0.026 A 
ATOM      6  C   UNL     1      13.163  85.926 153.665  1.00  0.00     0.008 A 
ATOM      7  C   UNL     1      13.665  83.853 154.799  1.00  0.00     0.008 A 
ATOM      8  C   UNL     1      14.170  86.566 154.389  1.00  0.00     0.001 A 
ATOM      9  C   UNL     1      14.671  84.492 155.524  1.00  0.00     0.001 A 
ATOM     10  C   UNL     1      14.923  85.849 155.319  1.00  0.00     0.000 A 
ENDBRANCH   1   5
TORSDOF 2
ENDMDL
MODEL 4
REMARK VINA RESULT:    -4.796      3.924      5.470
REMARK INTER + INTRA:          -5.472
REMARK INTER:                  -5.363
REMARK INTRA:                  -0.108
REMARK UNBOUND:                -0.114
REMARK SMILES O=C/C=C/c1ccccc1
REMARK SMILES IDX 4 1 3 2 2 3 1 4 5 5 6 6 10 7 7 8 9 9 8 10
REMARK H PARENT
ROOT
ATOM      1  C   UNL     1      10.286  85.531 151.748  1.00  0.00     0.011 C 
ATOM      2  C   UNL     1       9.035  85.827 152.162  1.00  0.00     0.044 C 
ENDROOT
BRANCH   2   3
ATOM      3  C   UNL     1       8.140  86.594 151.272  1.00  0.00     0.252 C 
ATOM      4  O   UNL     1       6.932  86.394 151.240  1.00  0.00    -0.299 OA
ENDBRANCH   2   3
BRANCH   1   5
ATOM      5  C   UNL     1      11.270  84.779 152.511  1.00  0.00    -0.026 A 
ATOM      6  C   UNL     1      11.405  83.405 152.310  1.00  0.00     0.008 A 
ATOM      7  C   UNL     1      12.078  85.430 153.442  1.00  0.00     0.008 A 
ATOM      8  C   UNL     1      12.348  82.683 153.042  1.00  0.00     0.001 A 
ATOM      9  C   UNL     1      13.022  84.709 154.173  1.00  0.00     0.001 A 
ATOM     10  C   UNL     1      13.158  83.335 153.972  1.00  0.00     0.000 A 
ENDBRANCH   1   5
TORSDOF 2
ENDMDL
MODEL 5
REMARK VINA RESULT:    -4.746      3.316      4.841
REMARK INTER + INTRA:          -5.416
REMARK INTER:                  -5.307
REMARK INTRA:                  -0.109
REMARK UNBOUND:                -0.114
REMARK SMILES O=C/C=C/c1ccccc1
REMARK SMILES IDX 4 1 3 2 2 3 1 4 5 5 6 6 10 7 7 8 9 9 8 10
REMARK H PARENT
ROOT
ATOM      1  C   UNL     1      11.494  85.434 152.309  1.00  0.00     0.011 C 
ATOM      2  C   UNL     1      10.218  85.804 152.550  1.00  0.00     0.044 C 
ENDROOT
BRANCH   2   3
ATOM      3  C   UNL     1       9.301  86.019 151.412  1.00  0.00     0.252 C 
ATOM      4  O   UNL     1       8.463  86.913 151.416  1.00  0.00    -0.299 OA
ENDBRANCH   2   3
BRANCH   1   5
ATOM      5  C   UNL     1      12.503  85.178 153.326  1.00  0.00    -0.026 A 
ATOM      6  C   UNL     1      13.225  86.239 153.874  1.00  0.00     0.008 A 
ATOM      7  C   UNL     1      12.747  83.874 153.755  1.00  0.00     0.008 A 
ATOM      8  C   UNL     1      14.192  85.994 154.849  1.00  0.00     0.001 A 
ATOM      9  C   UNL     1      13.713  83.629 154.731  1.00  0.00     0.001 A 
ATOM     10  C   UNL     1      14.435  84.689 155.279  1.00  0.00     0.000 A 
ENDBRANCH   1   5
TORSDOF 2
ENDMDL
MODEL 6
REMARK VINA RESULT:    -4.559      2.997      4.741
REMARK INTER + INTRA:          -5.207
REMARK INTER:                  -5.086
REMARK INTRA:                  -0.120
REMARK UNBOUND:                -0.114
REMARK SMILES O=C/C=C/c1ccccc1
REMARK SMILES IDX 4 1 3 2 2 3 1 4 5 5 6 6 10 7 7 8 9 9 8 10
REMARK H PARENT
ROOT
ATOM      1  C   UNL     1      12.469  85.437 153.637  1.00  0.00     0.011 C 
ATOM      2  C   UNL     1      12.338  86.052 152.442  1.00  0.00     0.044 C 
ENDROOT
BRANCH   2   3
ATOM      3  C   UNL     1      11.186  85.718 151.579  1.00  0.00     0.252 C 
ATOM      4  O   UNL     1      10.184  86.422 151.537  1.00  0.00    -0.299 OA
ENDBRANCH   2   3
BRANCH   1   5
ATOM      5  C   UNL     1      13.542  85.672 154.591  1.00  0.00    -0.026 A 
ATOM      6  C   UNL     1      14.646  86.441 154.225  1.00  0.00     0.008 A 
ATOM      7  C   UNL     1      13.466  85.129 155.874  1.00  0.00     0.008 A 
ATOM      8  C   UNL     1      15.675  86.666 155.140  1.00  0.00     0.001 A 
ATOM      9  C   UNL     1      14.493  85.354 156.789  1.00  0.00     0.001 A 
ATOM     10  C   UNL     1      15.598  86.123 156.423  1.00  0.00     0.000 A 
ENDBRANCH   1   5
TORSDOF 2
ENDMDL
MODEL 7
REMARK VINA RESULT:    -4.495      3.505      6.096
REMARK INTER + INTRA:          -5.135
REMARK INTER:                  -5.016
REMARK INTRA:                  -0.120
REMARK UNBOUND:                -0.114
REMARK SMILES O=C/C=C/c1ccccc1
REMARK SMILES IDX 4 1 3 2 2 3 1 4 5 5 6 6 10 7 7 8 9 9 8 10
REMARK H PARENT
ROOT
ATOM      1  C   UNL     1      15.111  85.806 157.077  1.00  0.00     0.011 C 
ATOM      2  C   UNL     1      15.368  86.839 156.245  1.00  0.00     0.044 C 
ENDROOT
BRANCH   2   3
ATOM      3  C   UNL     1      15.321  86.620 154.785  1.00  0.00     0.252 C 
ATOM      4  O   UNL     1      14.272  86.381 154.199  1.00  0.00    -0.299 OA
ENDBRANCH   2   3
BRANCH   1   5
ATOM      5  C   UNL     1      15.112  85.875 158.530  1.00  0.00    -0.026 A 
ATOM      6  C   UNL     1      15.863  86.853 159.181  1.00  0.00     0.008 A 
ATOM      7  C   UNL     1      14.360  84.964 159.272  1.00  0.00     0.008 A 
ATOM      8  C   UNL     1      15.863  86.920 160.575  1.00  0.00     0.001 A 
ATOM      9  C   UNL     1      14.360  85.030 160.665  1.00  0.00     0.001 A 
ATOM     10  C   UNL     1      15.111  86.009 161.317  1.00  0.00     0.000 A 
ENDBRANCH   1   5
TORSDOF 2
ENDMDL
MODEL 8
REMARK VINA RESULT:    -4.440      8.742      9.887
REMARK INTER + INTRA:          -5.073
REMARK INTER:                  -4.962
REMARK INTRA:                  -0.112
REMARK UNBOUND:                -0.114
REMARK SMILES O=C/C=C/c1ccccc1
REMARK SMILES IDX 4 1 3 2 2 3 1 4 5 5 6 6 10 7 7 8 9 9 8 10
REMARK H PARENT
ROOT
ATOM      1  C   UNL     1       3.830  87.687 153.608  1.00  0.00     0.011 C 
ATOM      2  C   UNL     1       2.970  86.843 154.218  1.00  0.00     0.044 C 
ENDROOT
BRANCH   2   3
ATOM      3  C   UNL     1       1.954  87.387 155.142  1.00  0.00     0.252 C 
ATOM      4  O   UNL     1       2.141  88.420 155.774  1.00  0.00    -0.299 OA
ENDBRANCH   2   3
BRANCH   1   5
ATOM      5  C   UNL     1       4.871  87.296 152.671  1.00  0.00    -0.026 A 
ATOM      6  C   UNL     1       4.591  87.225 151.307  1.00  0.00     0.008 A 
ATOM      7  C   UNL     1       6.151  86.993 153.136  1.00  0.00     0.008 A 
ATOM      8  C   UNL     1       5.590  86.850 150.408  1.00  0.00     0.001 A 
ATOM      9  C   UNL     1       7.150  86.619 152.238  1.00  0.00     0.001 A 
ATOM     10  C   UNL     1       6.870  86.548 150.874  1.00  0.00     0.000 A 
ENDBRANCH   1   5
TORSDOF 2
ENDMDL
MODEL 9
REMARK VINA RESULT:    -4.303      3.746      5.247
REMARK INTER + INTRA:          -4.921
REMARK INTER:                  -4.811
REMARK INTRA:                  -0.109
REMARK UNBOUND:                -0.114
REMARK SMILES O=C/C=C/c1ccccc1
REMARK SMILES IDX 4 1 3 2 2 3 1 4 5 5 6 6 10 7 7 8 9 9 8 10
REMARK H PARENT
ROOT
ATOM      1  C   UNL     1      12.705  84.049 158.434  1.00  0.00     0.011 C 
ATOM      2  C   UNL     1      12.677  82.738 158.755  1.00  0.00     0.044 C 
ENDROOT
BRANCH   2   3
ATOM      3  C   UNL     1      11.663  82.250 159.712  1.00  0.00     0.252 C 
ATOM      4  O   UNL     1      10.929  81.304 159.451  1.00  0.00    -0.299 OA
ENDBRANCH   2   3
BRANCH   1   5
ATOM      5  C   UNL     1      13.637  84.668 157.504  1.00  0.00    -0.026 A 
ATOM      6  C   UNL     1      14.667  85.478 157.983  1.00  0.00     0.008 A 
ATOM      7  C   UNL     1      13.502  84.451 156.133  1.00  0.00     0.008 A 
ATOM      8  C   UNL     1      15.560  86.072 157.091  1.00  0.00     0.001 A 
ATOM      9  C   UNL     1      14.396  85.043 155.240  1.00  0.00     0.001 A 
ATOM     10  C   UNL     1      15.425  85.853 155.719  1.00  0.00     0.000 A 
ENDBRANCH   1   5
TORSDOF 2
ENDMDL
