REMARK SMILES O=C/C=C/c1ccccc1
REMARK SMILES IDX 4 1 3 2 2 3 1 4 5 5 6 6 10 7 7 8 9 9 8 10
REMARK H PARENT
ROOT
ATOM      1  C   UNL     1       0.973  -0.631   0.191  1.00  0.00     0.011 C 
ATOM      2  C   UNL     1       2.004   0.200  -0.073  1.00  0.00     0.044 C 
ENDROOT
BRANCH   2   3
ATOM      3  C   UNL     1       3.388  -0.299   0.061  1.00  0.00     0.252 C 
ATOM      4  O   UNL     1       4.358   0.414  -0.167  1.00  0.00    -0.299 OA
ENDBRANCH   2   3
BRANCH   1   5
ATOM      5  C   UNL     1      -0.436  -0.282   0.093  1.00  0.00    -0.026 A 
ATOM      6  C   UNL     1      -0.826   1.057   0.113  1.00  0.00     0.008 A 
ATOM      7  C   UNL     1      -1.397  -1.286  -0.022  1.00  0.00     0.008 A 
ATOM      8  C   UNL     1      -2.177   1.392   0.019  1.00  0.00     0.001 A 
ATOM      9  C   UNL     1      -2.748  -0.952  -0.117  1.00  0.00     0.001 A 
ATOM     10  C   UNL     1      -3.138   0.387  -0.097  1.00  0.00     0.000 A 
ENDBRANCH   1   5
TORSDOF 2
